# Force and moment coefficients
# dragDir       : (1.00000000e+00 0.00000000e+00 0.00000000e+00)
# sideDir       : (0.00000000e+00 0.00000000e+00 -1.00000000e+00)
# liftDir       : (0.00000000e+00 1.00000000e+00 0.00000000e+00)
# rollAxis      : (1.00000000e+00 0.00000000e+00 0.00000000e+00)
# pitchAxis     : (0.00000000e+00 0.00000000e+00 -1.00000000e+00)
# yawAxis       : (0.00000000e+00 1.00000000e+00 0.00000000e+00)
# magUInf       : 1.00000000e+00
# lRef          : 1.00000000e-01
# Aref          : 1.00000000e-03
# CofR          : (2.00000000e-01 2.00000000e-01 5.00000000e-03)
#
# Time          	Cd              	Cd(f)           	Cd(r)           	Cl              	Cl(f)           	Cl(r)           	CmPitch         	CmRoll          	CmYaw           	Cs              	Cs(f)           	Cs(r)           
0               	0.00000000e+00	0.00000000e+00	0.00000000e+00	0.00000000e+00	0.00000000e+00	0.00000000e+00	0.00000000e+00	0.00000000e+00	0.00000000e+00	0.00000000e+00	0.00000000e+00	0.00000000e+00
4               	3.15719080e+00	1.57859540e+00	1.57859540e+00	1.80209282e-02	2.01216205e-01	-1.83195277e-01	1.92205741e-01	1.50792210e-16	-2.56008673e-17	-2.35731428e-16	-1.43466581e-16	-9.22648467e-17
4.01            	3.15846404e+00	1.57923202e+00	1.57923202e+00	1.24255212e-01	-5.27366878e-01	6.51622090e-01	-5.89494484e-01	1.48119258e-16	-2.30792154e-17	-2.37729106e-16	-1.41943768e-16	-9.57853377e-17
4.02            	3.14356513e+00	1.57178257e+00	1.57178257e+00	2.67852046e-01	-4.12451411e-02	3.09097188e-01	-1.75171164e-01	1.52092263e-16	-2.20471400e-17	-2.51772516e-16	-1.47933398e-16	-1.03839118e-16
4.03            	3.15196816e+00	1.57598408e+00	1.57598408e+00	3.96547109e-01	-2.37997437e-01	6.34544546e-01	-4.36270992e-01	1.54960471e-16	-2.05834028e-17	-2.63890499e-16	-1.52528652e-16	-1.11361847e-16
4.04            	3.14337688e+00	1.57168844e+00	1.57168844e+00	5.05096684e-01	3.18076280e-01	1.87020404e-01	6.55279377e-02	1.57534306e-16	-2.06502864e-17	-2.73853239e-16	-1.57576906e-16	-1.16276333e-16
4.05            	3.15959664e+00	1.57979832e+00	1.57979832e+00	5.88807524e-01	9.88054479e-02	4.90002076e-01	-1.95598314e-01	1.58888911e-16	-2.02655336e-17	-2.81396191e-16	-1.60963629e-16	-1.20432562e-16
4.06            	3.17226635e+00	1.58613318e+00	1.58613318e+00	6.44132520e-01	6.18623987e-02	5.82270121e-01	-2.60203861e-01	1.59644280e-16	-2.05429710e-17	-2.86185287e-16	-1.63635615e-16	-1.22549673e-16
4.07            	3.17034439e+00	1.58517220e+00	1.58517220e+00	6.68474695e-01	5.30256533e-01	1.38218161e-01	1.96019186e-01	1.60044151e-16	-2.16705109e-17	-2.87749298e-16	-1.65545160e-16	-1.22204138e-16
4.08            	3.18112020e+00	1.59056010e+00	1.59056010e+00	6.60210658e-01	4.55950697e-01	2.04259960e-01	1.25845368e-01	1.59494110e-16	-2.20177403e-17	-2.85564239e-16	-1.64799860e-16	-1.20764379e-16
4.09            	3.19337634e+00	1.59668817e+00	1.59668817e+00	6.19039223e-01	1.86016150e-01	4.33023073e-01	-1.23503462e-01	1.58232900e-16	-2.17998387e-17	-2.79242505e-16	-1.61421091e-16	-1.17821414e-16
4.1             	3.19396453e+00	1.59698226e+00	1.59698226e+00	5.45925971e-01	1.67208866e-01	3.78717104e-01	-1.05754119e-01	1.56534957e-16	-2.14612718e-17	-2.68625012e-16	-1.55773778e-16	-1.12851234e-16
4.11            	3.23773569e+00	1.61886785e+00	1.61886785e+00	5.40662946e-01	2.79452701e-01	2.61210245e-01	9.12122787e-03	1.65329076e-16	-1.86710198e-17	-2.76093394e-16	-1.56717717e-16	-1.19375677e-16
4.12            	3.21082834e+00	1.60541417e+00	1.60541417e+00	4.39676135e-01	8.30328036e-01	-3.90651901e-01	6.10489969e-01	1.67479417e-16	-1.54549120e-17	-2.60984801e-16	-1.45947313e-16	-1.15037489e-16
4.13            	3.19510733e+00	1.59755366e+00	1.59755366e+00	3.22421805e-01	8.41696698e-01	-5.19274893e-01	6.80485795e-01	1.69116817e-16	-1.14185312e-17	-2.43756073e-16	-1.33296568e-16	-1.10459505e-16
4.14            	3.20233514e+00	1.60116757e+00	1.60116757e+00	1.92806257e-01	-1.28013519e-02	2.05607609e-01	-1.09204480e-01	1.69639819e-16	-6.64698363e-18	-2.25194336e-16	-1.19244151e-16	-1.05950184e-16
4.15            	3.16727243e+00	1.58363622e+00	1.58363622e+00	5.50562946e-02	6.94536459e-01	-6.39480164e-01	6.67008312e-01	1.70153191e-16	-4.77777084e-18	-2.06207574e-16	-1.07881558e-16	-9.83260162e-17
4.16            	3.16538663e+00	1.58269331e+00	1.58269331e+00	-8.66862124e-02	3.41052021e-01	-4.27738234e-01	3.84395128e-01	1.68774376e-16	-2.84047077e-18	-1.87711376e-16	-9.66961585e-17	-9.10152170e-17
4.17            	3.16074329e+00	1.58037164e+00	1.58037164e+00	-2.28577847e-01	2.65636160e-01	-4.94214007e-01	3.79925084e-01	1.66089371e-16	-2.86721682e-18	-1.70489241e-16	-8.81118371e-17	-8.23774034e-17
4.18            	3.15877784e+00	1.57938892e+00	1.57938892e+00	-3.66813980e-01	3.01174233e-01	-6.67988213e-01	4.84581223e-01	1.61900269e-16	-4.74758695e-18	-1.55110222e-16	-8.23026978e-17	-7.28075239e-17
4.19            	3.17879072e+00	1.58939536e+00	1.58939536e+00	-4.97336656e-01	-2.40724646e-01	-2.56612010e-01	7.94368229e-03	1.55902393e-16	-7.44095392e-18	-1.41914937e-16	-7.83984224e-17	-6.35165145e-17
4.2             	3.18571221e+00	1.59285610e+00	1.59285610e+00	-6.15586213e-01	-1.33224586e-01	-4.82361627e-01	1.74568520e-01	1.49207162e-16	-1.21298897e-17	-1.31092092e-16	-7.76759356e-17	-5.34161563e-17
4.21            	3.21176147e+00	1.60588073e+00	1.60588073e+00	-7.87168398e-01	2.04207298e-01	-9.91375696e-01	5.97791497e-01	1.49148718e-16	-1.10887903e-17	-1.16734292e-16	-6.94559363e-17	-4.72783558e-17
4.22            	3.25011889e+00	1.62505945e+00	1.62505945e+00	-8.05204522e-01	-1.77896956e-01	-6.27307566e-01	2.24705305e-01	1.47371269e-16	-1.70738334e-17	-1.26508395e-16	-8.03280307e-17	-4.61803639e-17
4.23            	3.27375425e+00	1.63687713e+00	1.63687713e+00	-7.91166815e-01	-1.65991656e-02	-7.74567650e-01	3.78984242e-01	1.46182775e-16	-2.40620105e-17	-1.40087919e-16	-9.41059701e-17	-4.59819492e-17
4.24            	3.28750911e+00	1.64375455e+00	1.64375455e+00	-7.45786104e-01	3.76167340e-01	-1.12195344e+00	7.49060392e-01	1.45735721e-16	-3.09086222e-17	-1.56461564e-16	-1.09139404e-16	-4.73221600e-17
4.25            	3.33290221e+00	1.66645110e+00	1.66645110e+00	-6.70669042e-01	-6.01647991e-01	-6.90210502e-02	-2.66313471e-01	1.45377796e-16	-3.48431777e-17	-1.74614635e-16	-1.22150495e-16	-5.24641397e-17
4.26            	3.31754970e+00	1.65877485e+00	1.65877485e+00	-5.68440314e-01	2.60249899e-01	-8.28690213e-01	5.44470056e-01	1.47239241e-16	-3.94545686e-17	-1.93500394e-16	-1.36204765e-16	-5.72956282e-17
4.27            	3.31552084e+00	1.65776042e+00	1.65776042e+00	-4.43547197e-01	2.81307789e-01	-7.24854985e-01	5.03081387e-01	1.49731617e-16	-4.09374543e-17	-2.12086103e-16	-1.46980506e-16	-6.51055971e-17
4.28            	3.32516025e+00	1.66258013e+00	1.66258013e+00	-3.00148741e-01	-4.33430234e-01	1.33281493e-01	-2.83355863e-01	1.52806732e-16	-3.94329180e-17	-2.29786914e-16	-1.54326375e-16	-7.54605389e-17
4.29            	3.29434601e+00	1.64717301e+00	1.64717301e+00	-1.43703173e-01	7.12426079e-02	-2.14945781e-01	1.43094195e-01	1.57321640e-16	-3.78310591e-17	-2.46281397e-16	-1.60971758e-16	-8.53096396e-17
4.3             	3.28397823e+00	1.64198911e+00	1.64198911e+00	1.89975298e-02	-2.16694841e-01	2.35692370e-01	-2.26193605e-01	1.61625230e-16	-3.42047861e-17	-2.61576856e-16	-1.64993214e-16	-9.65836420e-17
4.31            	3.21365063e+00	1.60682531e+00	1.60682531e+00	2.16301475e-01	5.89039270e-01	-3.72737795e-01	4.80888532e-01	1.75866403e-16	-2.71133266e-17	-2.90284523e-16	-1.72255588e-16	-1.18028935e-16
4.32            	3.22583273e+00	1.61291636e+00	1.61291636e+00	4.34272106e-01	6.53719303e-03	4.27734913e-01	-2.10598860e-01	1.83789133e-16	-2.42611773e-17	-3.18005369e-16	-1.83263862e-16	-1.34741507e-16
4.33            	3.21620261e+00	1.60810131e+00	1.60810131e+00	6.53139588e-01	1.93166373e-01	4.59973214e-01	-1.33403421e-01	1.92046058e-16	-2.20426394e-17	-3.44514636e-16	-1.94299957e-16	-1.50214678e-16
4.34            	3.20073872e+00	1.60036936e+00	1.60036936e+00	8.65978973e-01	6.22240737e-01	2.43738236e-01	1.89251250e-01	1.99937179e-16	-2.00316863e-17	-3.69084340e-16	-2.04573857e-16	-1.64510484e-16
4.35            	3.20431592e+00	1.60215796e+00	1.60215796e+00	1.06575924e+00	4.47517289e-01	6.18241948e-01	-8.53623297e-02	2.06604486e-16	-1.73799417e-17	-3.91018155e-16	-2.12889019e-16	-1.78129136e-16
4.36            	3.18301507e+00	1.59150754e+00	1.59150754e+00	1.24576199e+00	1.27217528e+00	-2.64132886e-02	6.49294284e-01	2.12754666e-16	-1.63840959e-17	-4.09764927e-16	-2.21266559e-16	-1.88498368e-16
4.37            	3.19670864e+00	1.59835432e+00	1.59835432e+00	1.39941152e+00	9.67640717e-01	4.31770803e-01	2.67934957e-01	2.16927152e-16	-1.44575499e-17	-4.24880441e-16	-2.26897771e-16	-1.97982671e-16
4.38            	3.20402471e+00	1.60201236e+00	1.60201236e+00	1.52109467e+00	1.00343812e+00	5.17656546e-01	2.42890789e-01	2.19934601e-16	-1.36005290e-17	-4.36075018e-16	-2.31638038e-16	-2.04436980e-16
4.39            	3.21341914e+00	1.60670957e+00	1.60670957e+00	1.60603783e+00	1.04373962e+00	5.62298211e-01	2.40720704e-01	2.21560716e-16	-1.33727283e-17	-4.43056117e-16	-2.34900787e-16	-2.08155330e-16
4.4             	3.22286618e+00	1.61143309e+00	1.61143309e+00	1.65072626e+00	1.10845505e+00	5.42271208e-01	2.83091923e-01	2.21852163e-16	-1.36822388e-17	-4.45491836e-16	-2.36428157e-16	-2.09063679e-16
4.41            	3.27749902e+00	1.63874951e+00	1.63874951e+00	1.06708912e+00	2.64303180e-01	8.02785940e-01	-2.69241380e-01	1.77265248e-16	-2.76674087e-17	-3.56218294e-16	-2.05776556e-16	-1.50441739e-16
4.42            	3.28445198e+00	1.64222599e+00	1.64222599e+00	9.91735395e-01	3.28928848e-01	6.62806547e-01	-1.66938850e-01	1.74261900e-16	-2.71516875e-17	-3.43008795e-16	-1.98656085e-16	-1.44352710e-16
4.43            	3.28599605e+00	1.64299802e+00	1.64299802e+00	8.82387249e-01	4.13620665e-01	4.68766585e-01	-2.75729598e-02	1.71494134e-16	-2.56353674e-17	-3.25128612e-16	-1.88199673e-16	-1.36928938e-16
4.44            	3.29612057e+00	1.64806028e+00	1.64806028e+00	7.43162166e-01	-1.92386529e-02	7.62400818e-01	-3.90819736e-01	1.68877013e-16	-2.24042293e-17	-3.03183074e-16	-1.73995766e-16	-1.29187307e-16
4.45            	3.29000091e+00	1.64500046e+00	1.64500046e+00	5.78741200e-01	-8.48979579e-02	6.63639158e-01	-3.74268558e-01	1.66969970e-16	-1.87961679e-17	-2.77952885e-16	-1.57772611e-16	-1.20180275e-16
4.46            	3.26671909e+00	1.63335954e+00	1.63335954e+00	3.94433841e-01	2.85987306e-01	1.08446535e-01	8.87703855e-02	1.65657368e-16	-1.52689102e-17	-2.50374531e-16	-1.40456176e-16	-1.09918355e-16
4.47            	3.24059026e+00	1.62029513e+00	1.62029513e+00	1.96187436e-01	6.49742085e-01	-4.53554649e-01	5.51648367e-01	1.64406673e-16	-1.17192838e-17	-2.21519124e-16	-1.22478846e-16	-9.90402780e-17
4.48            	3.25392845e+00	1.62696423e+00	1.62696423e+00	-9.58817014e-03	-4.21298464e-01	4.11710294e-01	-4.16504379e-01	1.62061532e-16	-6.80469656e-18	-1.92565518e-16	-1.03087456e-16	-8.94780625e-17
4.49            	3.22461539e+00	1.61230770e+00	1.61230770e+00	-2.16437647e-01	9.45631594e-02	-3.11000807e-01	2.02781983e-01	1.60157889e-16	-4.92652483e-18	-1.64724442e-16	-8.72887457e-17	-7.74356961e-17
4.5             	3.22532928e+00	1.61266464e+00	1.61266464e+00	-4.18251085e-01	-3.30821795e-01	-8.74292899e-02	-1.21696253e-01	1.56909556e-16	-3.23066577e-18	-1.39128341e-16	-7.27948365e-17	-6.63335049e-17
4.51            	3.21706227e+00	1.60853113e+00	1.60853113e+00	-6.09520615e-01	-2.51720659e-01	-3.57799955e-01	5.30396479e-02	1.52982175e-16	-3.87591318e-18	-1.16692908e-16	-6.22223674e-17	-5.44705410e-17
4.52            	3.22836510e+00	1.61418255e+00	1.61418255e+00	-7.85162418e-01	-6.62170560e-01	-1.22991858e-01	-2.69589351e-01	1.47678226e-16	-5.66685147e-18	-9.80526564e-17	-5.46931796e-17	-4.33594767e-17
4.53            	3.21524033e+00	1.60762017e+00	1.60762017e+00	-9.40330736e-01	1.25822654e-02	-9.52913002e-01	4.82747633e-01	1.42036373e-16	-1.04856862e-17	-8.35510528e-17	-5.22612126e-17	-3.12898402e-17
4.54            	3.24206704e+00	1.62103352e+00	1.62103352e+00	-1.07025928e+00	-5.58819310e-01	-5.11439970e-01	-2.36896698e-02	1.34973410e-16	-1.49084916e-17	-7.33199218e-17	-5.15684526e-17	-2.17514693e-17
4.55            	3.25272681e+00	1.62636340e+00	1.62636340e+00	-1.17051788e+00	-4.29279638e-01	-7.41238240e-01	1.55979301e-01	1.28202171e-16	-2.08665991e-17	-6.73600657e-17	-5.45466320e-17	-1.28134337e-17
4.56            	3.27418818e+00	1.63709409e+00	1.63709409e+00	-1.23738429e+00	-6.47775574e-01	-5.89608720e-01	-2.90834273e-02	1.21745801e-16	-2.63479948e-17	-6.56268857e-17	-5.91614376e-17	-6.46544808e-18
4.57            	3.28761123e+00	1.64380562e+00	1.64380562e+00	-1.26827471e+00	-6.35006728e-01	-6.33267986e-01	-8.69371308e-04	1.16598046e-16	-3.15013939e-17	-6.80391303e-17	-6.55209590e-17	-2.51817128e-18
4.58            	3.30569189e+00	1.65284594e+00	1.65284594e+00	-1.26184405e+00	-9.26454110e-01	-3.35389944e-01	-2.95532083e-01	1.12958367e-16	-3.51779379e-17	-7.44818438e-17	-7.24188598e-17	-2.06298403e-18
4.59            	3.31035493e+00	1.65517746e+00	1.65517746e+00	-1.21780700e+00	-9.25484325e-01	-2.92322678e-01	-3.16580823e-01	1.11537817e-16	-3.78692825e-17	-8.47884848e-17	-8.02635249e-17	-4.52495990e-18
4.6             	3.29158508e+00	1.64579254e+00	1.64579254e+00	-1.13672063e+00	-2.81849236e-01	-8.54871395e-01	2.86511080e-01	1.12727795e-16	-3.99198898e-17	-9.87461515e-17	-8.92929656e-17	-9.45318590e-18
4.61            	3.29194401e+00	1.64597201e+00	1.64597201e+00	-1.01996113e+00	-4.87363158e-01	-5.32597971e-01	2.26174065e-02	1.15659108e-16	-3.94368644e-17	-1.16103290e-16	-9.74885096e-17	-1.86147808e-17
4.62            	3.26871496e+00	1.63435748e+00	1.63435748e+00	-8.70086824e-01	4.20718090e-02	-9.12158633e-01	4.77115221e-01	1.21166188e-16	-3.86494518e-17	-1.36553441e-16	-1.06926172e-16	-2.96272688e-17
4.63            	3.26368365e+00	1.63184183e+00	1.63184183e+00	-6.91270097e-01	-1.22498842e-01	-5.68771255e-01	2.23136206e-01	1.28092888e-16	-3.60148647e-17	-1.59699437e-16	-1.15864583e-16	-4.38348538e-17
4.64            	3.25346100e+00	1.62673050e+00	1.62673050e+00	-4.89559384e-01	-8.15124976e-02	-4.08046886e-01	1.63267194e-01	1.36511384e-16	-3.31044225e-17	-1.84995318e-16	-1.25602081e-16	-5.93932363e-17
4.65            	3.23343362e+00	1.61671681e+00	1.61671681e+00	-2.72661814e-01	3.82801722e-01	-6.55463536e-01	5.19132629e-01	1.45940722e-16	-3.06478348e-17	-2.11712764e-16	-1.36504217e-16	-7.52085474e-17
4.66            	3.23622014e+00	1.61811007e+00	1.61811007e+00	-4.93060398e-02	1.43102872e-01	-1.92408912e-01	1.67755892e-01	1.55045081e-16	-2.75835505e-17	-2.38954141e-16	-1.47060621e-16	-9.18935200e-17
4.67            	3.23534204e+00	1.61767102e+00	1.61767102e+00	1.71629973e-01	1.68644153e-01	2.98582020e-03	8.28291662e-02	1.63822561e-16	-2.54394033e-17	-2.65725099e-16	-1.58301953e-16	-1.07423146e-16
4.68            	3.24416441e+00	1.62208221e+00	1.62208221e+00	3.81693846e-01	-1.63865101e-02	3.98080356e-01	-2.07233433e-01	1.71545532e-16	-2.37107110e-17	-2.91014967e-16	-1.69218194e-16	-1.21796772e-16
4.69            	3.24172935e+00	1.62086468e+00	1.62086468e+00	5.73200965e-01	3.19181505e-01	2.54019460e-01	3.25810225e-02	1.78378868e-16	-2.33093686e-17	-3.13869136e-16	-1.80243937e-16	-1.33625200e-16
4.7             	3.26185916e+00	1.63092958e+00	1.63092958e+00	7.39231244e-01	-6.98839242e-02	8.09115168e-01	-4.39499546e-01	1.83416779e-16	-2.24925726e-17	-3.33407418e-16	-1.89196282e-16	-1.44211136e-16
4.71            	3.27061907e+00	1.63530953e+00	1.63530953e+00	8.73792894e-01	-1.41848335e-02	8.87977728e-01	-4.51081281e-01	1.87289237e-16	-2.25976100e-17	-3.48837634e-16	-1.97016427e-16	-1.51821207e-16
4.72            	3.27294362e+00	1.63647181e+00	1.63647181e+00	9.72086148e-01	2.66817329e-01	7.05268819e-01	-2.19225745e-01	1.89848093e-16	-2.31466839e-17	-3.59471108e-16	-2.02882238e-16	-1.56588870e-16
4.73            	3.27799139e+00	1.63899570e+00	1.63899570e+00	1.03093779e+00	4.09494888e-01	6.21442901e-01	-1.05974007e-01	1.90944664e-16	-2.34598270e-17	-3.64777620e-16	-2.05848637e-16	-1.58928983e-16
4.74            	3.28722842e+00	1.64361421e+00	1.64361421e+00	1.04917495e+00	3.34726563e-01	7.14448383e-01	-1.89860910e-01	1.90717905e-16	-2.32175446e-17	-3.64472138e-16	-2.05453614e-16	-1.59018524e-16
4.75            	3.29325105e+00	1.64662552e+00	1.64662552e+00	1.02753388e+00	2.85866264e-01	7.41667617e-01	-2.27900676e-01	1.89602001e-16	-2.25396174e-17	-3.58571095e-16	-2.01825165e-16	-1.56745930e-16
4.76            	3.30597993e+00	1.65298997e+00	1.65298997e+00	9.68357369e-01	-1.10030290e-01	1.07838766e+00	-5.94208975e-01	1.87696555e-16	-2.08161507e-17	-3.47406609e-16	-1.94519455e-16	-1.52887154e-16
4.77            	3.30169617e+00	1.65084809e+00	1.65084809e+00	8.75060463e-01	-1.77528188e-02	8.92813282e-01	-4.55283050e-01	1.85770114e-16	-1.91180566e-17	-3.31567711e-16	-1.84901912e-16	-1.46665799e-16
4.78            	3.29664206e+00	1.64832103e+00	1.64832103e+00	7.51775513e-01	-2.29237642e-02	7.74699277e-01	-3.98811521e-01	1.83602627e-16	-1.68047360e-17	-3.11809364e-16	-1.72709418e-16	-1.39099946e-16
4.79            	3.27895882e+00	1.63947941e+00	1.63947941e+00	6.03275595e-01	3.08232873e-01	2.95042721e-01	6.59507599e-03	1.81450694e-16	-1.46547385e-17	-2.88975332e-16	-1.59142404e-16	-1.29832927e-16
4.8             	3.27384609e+00	1.63692304e+00	1.63692304e+00	4.35021081e-01	9.87468063e-02	3.36274275e-01	-1.18763734e-01	1.78692827e-16	-1.17934631e-17	-2.63964718e-16	-1.43775822e-16	-1.20188896e-16
4.81            	3.31354601e+00	1.65677301e+00	1.65677301e+00	-3.19226462e-02	5.16141005e-02	-8.35367467e-02	6.75754236e-02	1.58871666e-16	-1.64177014e-17	-1.97416664e-16	-1.15126033e-16	-8.22906305e-17
4.82            	3.28775236e+00	1.64387618e+00	1.64387618e+00	-2.44261560e-01	4.32195275e-01	-6.76456834e-01	5.54326054e-01	1.55304956e-16	-1.33331416e-17	-1.66262207e-16	-9.64642452e-17	-6.97979621e-17
4.83            	3.29508305e+00	1.64754152e+00	1.64754152e+00	-4.44495386e-01	-1.78790526e-01	-2.65704860e-01	4.34571667e-02	1.51634469e-16	-9.98825973e-18	-1.39232270e-16	-7.96043945e-17	-5.96278751e-17
4.84            	3.29608033e+00	1.64804017e+00	1.64804017e+00	-6.24763247e-01	-3.70997731e-01	-2.53765516e-01	-5.86161078e-02	1.48721290e-16	-8.52972482e-18	-1.17731649e-16	-6.73955494e-17	-5.03360998e-17
4.85            	3.28800471e+00	1.64400235e+00	1.64400235e+00	-7.77972290e-01	-1.87311074e-02	-7.59241182e-01	3.70255038e-01	1.46704846e-16	-9.29995544e-18	-1.02855439e-16	-6.07276752e-17	-4.21277643e-17
4.86            	3.29363046e+00	1.64681523e+00	1.64681523e+00	-8.97934449e-01	3.15506600e-02	-9.29485109e-01	4.80517885e-01	1.45039833e-16	-1.12012892e-17	-9.50615933e-17	-5.87320859e-17	-3.63295075e-17
4.87            	3.30861435e+00	1.65430717e+00	1.65430717e+00	-9.79560790e-01	-1.03028386e-01	-8.76532404e-01	3.86752009e-01	1.43784874e-16	-1.41741190e-17	-9.41995771e-17	-6.12739075e-17	-3.29256695e-17
4.88            	3.33726663e+00	1.66863332e+00	1.66863332e+00	-1.01923680e+00	-5.39383372e-01	-4.79853431e-01	-2.97649705e-02	1.43014190e-16	-1.77630182e-17	-9.99385684e-17	-6.77323024e-17	-3.22062660e-17
4.89            	3.33284150e+00	1.66642075e+00	1.66642075e+00	-1.01514337e+00	2.90349195e-01	-1.30549257e+00	7.97920881e-01	1.43714714e-16	-2.35655744e-17	-1.11464464e-16	-7.92978065e-17	-3.21666576e-17
4.9             	3.34961662e+00	1.67480831e+00	1.67480831e+00	-9.67039070e-01	4.10358506e-01	-1.37739758e+00	8.93878041e-01	1.44928191e-16	-2.85587834e-17	-1.28081060e-16	-9.25993133e-17	-3.54817465e-17
4.91            	3.29205498e+00	1.64602749e+00	1.64602749e+00	-1.12593597e+00	7.51789980e-02	-1.20111497e+00	6.38146983e-01	1.26782666e-16	-3.02514478e-17	-9.06112591e-17	-7.55570774e-17	-1.50541818e-17
4.92            	3.31554481e+00	1.65777240e+00	1.65777240e+00	-1.07517603e+00	-3.31985737e-01	-7.43190292e-01	2.05602278e-01	1.25721828e-16	-3.37927496e-17	-1.03818783e-16	-8.57021412e-17	-1.81166421e-17
4.93            	3.32544137e+00	1.66272069e+00	1.66272069e+00	-9.89280021e-01	-4.07910941e-01	-5.81369080e-01	8.67290698e-02	1.26374505e-16	-3.68479812e-17	-1.20759173e-16	-9.72275677e-17	-2.35316054e-17
4.94            	3.31371314e+00	1.65685657e+00	1.65685657e+00	-8.71179479e-01	1.01100025e-01	-9.72279504e-01	5.36689764e-01	1.28941856e-16	-3.95192181e-17	-1.40730315e-16	-1.09884375e-16	-3.08459393e-17
4.95            	3.32153049e+00	1.66076525e+00	1.66076525e+00	-7.24253375e-01	-2.81035509e-01	-4.43217866e-01	8.10911782e-02	1.32514628e-16	-3.97554625e-17	-1.63011147e-16	-1.21261036e-16	-4.17501111e-17
4.96            	3.30499029e+00	1.65249514e+00	1.65249514e+00	-5.52620834e-01	3.86439417e-02	-5.91264775e-01	3.14954359e-01	1.37943625e-16	-3.96038208e-17	-1.86890431e-16	-1.33049036e-16	-5.38413949e-17
4.97            	3.29004071e+00	1.64502035e+00	1.64502035e+00	-3.61458980e-01	1.75619288e-01	-5.37078267e-01	3.56348777e-01	1.44456500e-16	-3.80599420e-17	-2.11676622e-16	-1.43898253e-16	-6.77783688e-17
4.98            	3.27772133e+00	1.63886066e+00	1.63886066e+00	-1.57199209e-01	1.51222760e-01	-3.08421969e-01	2.29822364e-01	1.51682709e-16	-3.54454830e-17	-2.36674416e-16	-1.53782691e-16	-8.28917251e-17
4.99            	3.25717761e+00	1.62858880e+00	1.62858880e+00	5.27344430e-02	4.23912045e-01	-3.71177602e-01	3.97544824e-01	1.59405351e-16	-3.27611172e-17	-2.61189198e-16	-1.63355716e-16	-9.78334817e-17
5               	3.24470542e+00	1.62235271e+00	1.62235271e+00	2.60476249e-01	4.83275478e-01	-2.22799229e-01	3.53037354e-01	1.66797780e-16	-2.97798381e-17	-2.84544339e-16	-1.72052008e-16	-1.12492332e-16
5.01            	3.30101135e+00	1.65050568e+00	1.65050568e+00	6.88410138e-01	6.21475100e-01	6.69350380e-02	2.77270031e-01	1.90543177e-16	-2.88286260e-17	-3.48277931e-16	-2.02967591e-16	-1.45310339e-16
5.02            	3.30881558e+00	1.65440779e+00	1.65440779e+00	8.38806411e-01	4.43703201e-01	3.95103210e-01	2.42999954e-02	1.93740484e-16	-2.75502263e-17	-3.63261535e-16	-2.09180994e-16	-1.54080541e-16
5.03            	3.32275314e+00	1.66137657e+00	1.66137657e+00	9.56550920e-01	2.97040440e-01	6.59510479e-01	-1.81235020e-01	1.95065747e-16	-2.77971051e-17	-3.75067659e-16	-2.15330935e-16	-1.59736725e-16
5.04            	3.33372958e+00	1.66686479e+00	1.66686479e+00	1.03513354e+00	5.46475693e-01	4.88657844e-01	2.89089250e-02	1.94658253e-16	-3.00592815e-17	-3.83165593e-16	-2.21642078e-16	-1.61523515e-16
5.05            	3.35473675e+00	1.67736837e+00	1.67736837e+00	1.06950402e+00	5.94163580e-01	4.75340439e-01	5.94115702e-02	1.92007748e-16	-3.32738366e-17	-3.86513927e-16	-2.26530800e-16	-1.59983127e-16
5.06            	3.39117921e+00	1.69558960e+00	1.69558960e+00	1.05792090e+00	1.34051162e-01	9.23869740e-01	-3.94909289e-01	1.87043483e-16	-3.65314191e-17	-3.84223592e-16	-2.28643215e-16	-1.55580377e-16
5.07            	3.41379216e+00	1.70689608e+00	1.70689608e+00	1.00005237e+00	1.98747736e-01	8.01304634e-01	-3.01278449e-01	1.80829777e-16	-4.05090615e-17	-3.75591593e-16	-2.28304858e-16	-1.47286735e-16
5.08            	3.44637203e+00	1.72318601e+00	1.72318601e+00	8.97793516e-01	-2.56298642e-01	1.15409216e+00	-7.05195400e-01	1.73155869e-16	-4.30259644e-17	-3.59771530e-16	-2.22911729e-16	-1.36859801e-16
5.09            	3.45156970e+00	1.72578485e+00	1.72578485e+00	7.55444328e-01	5.16193502e-03	7.50282393e-01	-3.72560229e-01	1.65438096e-16	-4.49593571e-17	-3.36670112e-16	-2.13294413e-16	-1.23375699e-16
5.1             	3.45617368e+00	1.72808684e+00	1.72808684e+00	5.77345993e-01	6.97250845e-03	5.70373485e-01	-2.81700488e-01	1.57765713e-16	-4.45601360e-17	-3.06697591e-16	-1.97908931e-16	-1.08788659e-16
5.11            	3.37853133e+00	1.68926567e+00	1.68926567e+00	5.61839177e-01	5.01593269e-01	6.02459076e-02	2.20673681e-01	1.74712102e-16	-2.53973932e-17	-2.91580504e-16	-1.71187645e-16	-1.20392859e-16
5.12            	3.38323393e+00	1.69161697e+00	1.69161697e+00	3.91056918e-01	2.63051919e-01	1.28004999e-01	6.75234599e-02	1.71656860e-16	-2.38168186e-17	-2.68460952e-16	-1.58047295e-16	-1.10413657e-16
5.13            	3.37143934e+00	1.68571967e+00	1.68571967e+00	2.05601672e-01	4.07830435e-01	-2.02228762e-01	3.05029598e-01	1.69033597e-16	-2.22242871e-17	-2.43644488e-16	-1.44046531e-16	-9.95979567e-17
5.14            	3.36949410e+00	1.68474705e+00	1.68474705e+00	1.22759822e-02	2.77517019e-02	-1.54757197e-02	2.16137108e-02	1.66249363e-16	-1.96058988e-17	-2.17998034e-16	-1.28604916e-16	-8.93931183e-17
5.15            	3.34858854e+00	1.67429427e+00	1.67429427e+00	-1.82285963e-01	2.16508256e-01	-3.98794219e-01	3.07651237e-01	1.63826172e-16	-1.76658382e-17	-1.92483086e-16	-1.13907381e-16	-7.85757049e-17
5.16            	3.33683256e+00	1.66841628e+00	1.66841628e+00	-3.71133918e-01	4.85285121e-02	-4.19662430e-01	2.34095471e-01	1.61053981e-16	-1.55594185e-17	-1.68196980e-16	-9.96579085e-17	-6.85390714e-17
5.17            	3.33309493e+00	1.66654746e+00	1.66654746e+00	-5.47594426e-01	-3.54329945e-01	-1.93264481e-01	-8.05327323e-02	1.57865472e-16	-1.38044213e-17	-1.46234716e-16	-8.69217793e-17	-5.93129366e-17
5.18            	3.31743308e+00	1.65871654e+00	1.65871654e+00	-7.05480708e-01	-2.09303664e-01	-4.96177045e-01	1.43436691e-01	1.54647542e-16	-1.37096904e-17	-1.27591782e-16	-7.75055815e-17	-5.00862008e-17
5.19            	3.31213205e+00	1.65606603e+00	1.65606603e+00	-8.39167059e-01	-2.66504601e-01	-5.72662458e-01	1.53078929e-01	1.50958804e-16	-1.44742094e-17	-1.13096629e-16	-7.10225237e-17	-4.20741050e-17
5.2             	3.32377390e+00	1.66188695e+00	1.66188695e+00	-9.43995608e-01	-7.42380775e-01	-2.01614833e-01	-2.70382971e-01	1.46781165e-16	-1.58318356e-17	-1.03320329e-16	-6.74919998e-17	-3.58283287e-17
5.21            	3.22493956e+00	1.61246978e+00	1.61246978e+00	-1.16139679e+00	-8.01025829e-01	-3.60370957e-01	-2.20327436e-01	1.20064309e-16	-1.34682496e-17	-4.31861415e-17	-3.50613204e-17	-8.12482118e-18
5.22            	3.23259237e+00	1.61629618e+00	1.61629618e+00	-1.25536395e+00	-9.95712779e-01	-2.59651170e-01	-3.68030804e-01	1.15983471e-16	-1.53236982e-17	-3.47859980e-17	-3.27166972e-17	-2.06930078e-18
5.23            	3.22468949e+00	1.61234474e+00	1.61234474e+00	-1.31068609e+00	-5.10633808e-01	-8.00052287e-01	1.44709239e-01	1.13260952e-16	-1.87630371e-17	-3.28710696e-17	-3.51985719e-17	2.32750230e-18
5.24            	3.24251203e+00	1.62125601e+00	1.62125601e+00	-1.32524714e+00	-8.64488206e-01	-4.60758937e-01	-2.01864634e-01	1.11219062e-16	-2.15813374e-17	-3.74850655e-17	-4.03238701e-17	2.83880466e-18
5.25            	3.23971011e+00	1.61985506e+00	1.61985506e+00	-1.29828206e+00	-4.51985018e-01	-8.46297043e-01	1.97156012e-01	1.11034535e-16	-2.55603485e-17	-4.83744766e-17	-4.97475868e-17	1.37311023e-18
5.26            	3.23817428e+00	1.61908714e+00	1.61908714e+00	-1.23065232e+00	-1.08720654e-01	-1.12193167e+00	5.06605507e-01	1.12333270e-16	-2.93043733e-17	-6.49738112e-17	-6.17912789e-17	-3.18253227e-18
5.27            	3.24659860e+00	1.62329930e+00	1.62329930e+00	-1.12449211e+00	-1.86852262e-01	-9.37639849e-01	3.75393794e-01	1.14950729e-16	-3.20694826e-17	-8.65080440e-17	-7.53235046e-17	-1.11845394e-17
5.28            	3.26012422e+00	1.63006211e+00	1.63006211e+00	-9.83033103e-01	-5.38432180e-01	-4.44600923e-01	-4.69156282e-02	1.18942443e-16	-3.38100565e-17	-1.12062914e-16	-8.98415137e-17	-2.22214006e-17
5.29            	3.24445369e+00	1.62222684e+00	1.62222684e+00	-8.10487742e-01	5.28568034e-02	-8.63344545e-01	4.58100674e-01	1.24932234e-16	-3.59289420e-17	-1.40641820e-16	-1.06249852e-16	-3.43919682e-17
5.3             	3.24006765e+00	1.62003382e+00	1.62003382e+00	-6.12324463e-01	1.39450916e-01	-7.51775380e-01	4.45613148e-01	1.31850714e-16	-3.64481327e-17	-1.71150334e-16	-1.22023300e-16	-4.91270343e-17
5.31            	3.25929046e+00	1.62964523e+00	1.62964523e+00	-2.72413593e-01	2.24524459e-01	-4.96938052e-01	3.60731256e-01	1.48721242e-16	-3.43133824e-17	-2.21170973e-16	-1.44898869e-16	-7.62721039e-17
5.32            	3.24062893e+00	1.62031447e+00	1.62031447e+00	-4.25118747e-02	5.82352871e-01	-6.24864745e-01	6.03608808e-01	1.57262781e-16	-3.28105449e-17	-2.50289881e-16	-1.57955485e-16	-9.23343955e-17
5.33            	3.23111955e+00	1.61555978e+00	1.61555978e+00	1.90173544e-01	6.48179368e-01	-4.58005824e-01	5.53092596e-01	1.65462558e-16	-3.07911636e-17	-2.78523396e-16	-1.70052862e-16	-1.08470534e-16
5.34            	3.22849590e+00	1.61424795e+00	1.61424795e+00	4.16918341e-01	5.36802690e-01	-1.19884349e-01	3.28343519e-01	1.72942285e-16	-2.86363891e-17	-3.04971942e-16	-1.81122360e-16	-1.23849582e-16
5.35            	3.21839633e+00	1.60919817e+00	1.60919817e+00	6.29231988e-01	7.87172203e-01	-1.57940215e-01	4.72556209e-01	1.79647485e-16	-2.72339886e-17	-3.28819465e-16	-1.91643721e-16	-1.37175744e-16
5.36            	3.21696322e+00	1.60848161e+00	1.60848161e+00	8.19350085e-01	8.38578987e-01	-1.92289022e-02	4.28903945e-01	1.84960403e-16	-2.59872279e-17	-3.49368309e-16	-2.00671382e-16	-1.48696927e-16
5.37            	3.21977379e+00	1.60988689e+00	1.60988689e+00	9.80602276e-01	8.54997967e-01	1.25604310e-01	3.64696828e-01	1.88817117e-16	-2.51540997e-17	-3.66024577e-16	-2.08166388e-16	-1.57858189e-16
5.38            	3.22481697e+00	1.61240848e+00	1.61240848e+00	1.10766123e+00	9.01576132e-01	2.06085100e-01	3.47745516e-01	1.91222857e-16	-2.47789772e-17	-3.78311488e-16	-2.13934721e-16	-1.64376767e-16
5.39            	3.24255081e+00	1.62127540e+00	1.62127540e+00	1.19677796e+00	5.82821322e-01	6.13956637e-01	-1.55676577e-02	1.92034828e-16	-2.42249611e-17	-3.85877871e-16	-2.17163896e-16	-1.68713974e-16
5.4             	3.24740460e+00	1.62370230e+00	1.62370230e+00	1.24570657e+00	7.77203279e-01	4.68503291e-01	1.54349994e-01	1.91984785e-16	-2.44418320e-17	-3.88490336e-16	-2.18687000e-16	-1.69803336e-16
5.41            	3.23672976e+00	1.61836488e+00	1.61836488e+00	1.16574594e+00	2.76867323e-01	8.88878618e-01	-3.06005647e-01	1.90069116e-16	-1.81497064e-17	-3.66292477e-16	-2.01295945e-16	-1.64996532e-16